% Model:              Hemisphere_vessel - Copy (2).mph
% Version:            COMSOL 5.4.0.295
% Date:               Aug 6 2019, 18:25
% Dimension:          2
% Nodes:              2678
% Expressions:        2
% Description:        Electric field, r component, Electric field, z component
% Length unit:        m
% r                       z                        es.Er (V/m)              es.Ez (V/m)
0.0011319960790112966     0.0012236251416062626    1.6746786796925306       -113.22753439901044
0                         0.0017727272727272726    -0.00784132655662025     -114.90858984621862
0                         0                        -0.025842553911493288    -109.72440571648559
0.0017755272837526891     2.0210933443467044E-5    2.4925246922592135       -109.69199733937016
0.001250850096743368      0.0027104606049000433    1.9739928278832959       -117.75790528254204
0                         0.003545454545454545     -0.0023788108660625085   -120.49750345730753
0.0035501351775715667     8.083329359220556E-5     4.986358315616652        -109.5841815545001
0.0026336030145604253     0.0016147268969605312    3.9573376114148613       -114.20665471051798
0.004463391038365555      0.0015596681439055638    6.6668083622767185       -113.63287630349184
0.005322904972392177      1.8183577946031604E-4    7.477797599992404        -109.40508854775025
0.0013722686547422277     0.004401017354253279     2.331665785096663        -123.27955555161593
0                         0.005318181818181817     -3.5435143115591927E-4   -126.54090759761
0.006162789112324467      0.001682328713842632     9.203802137959515        -113.42033989754545
0.007092916634604007      3.23166042799107E-4      9.962169901227467        -109.15260514671884
0.0014197279202135147     0.006178961509580345     2.6146563993971292       -129.56234782087964
0                         0.007090909090909091     -2.60307927684759E-4     -133.0867218922059
0.007859701395928438      0.0018518319361486863    11.738865076624931       -113.16251184564537
0.008859251199044679      5.04750673397886E-4      12.43692161669658        -108.82804486520767
0.0014367555704888808     0.00795887064967127      2.8728468841564685       -136.38789408975467
0                         0.008863636363636365     -6.387577683426571E-4    -140.19158894112027
0.009562978943990308      0.002063066350081466     14.283318367014067       -112.83753155955611
0.01062099314722067       7.264954556434555E-4     14.899566890093423       -108.43201422374248
0.001440106080429315      0.009744507256509957     3.134307593994407        -143.83298078516552
0                         0.010636363636363638     -0.0011400240913227815   -147.91972792846124
0.01128539990047238       0.0023028460936813304    16.84427946552938        -112.39458392772723
0.0123772311550109        9.882856382522319E-4     17.34796099279221        -107.96445914451685
0.001439484007616087      0.011520280867197        3.4156627210812          -151.89832997501267
0                         0.012409090909090911     -0.0014864203104707485   -156.34427370130427
0.01300275188169458       0.0025849978367441773    19.393609605426537       -111.88573394377015
0.014127054711631944      0.0012899854961911925    19.77980678738669        -107.42567766025866
0.0014391802399516763     0.013294896823881039     3.731278030521177        -160.6947300417668
0                         0.014181818181818184     -0.0018012003829426249   -165.54892996742123
0.014713485927006551      0.0029023744141280076    21.922698175664767       -111.29169754952085
0.015869559116165433      0.0016314391031326916    22.192780373855765       -106.81606774744175
0.0014388663924740496     0.015068124098533331     4.0853878998919795       -170.3090949989093
0                         0.015954545454545457     -0.0020906394152765038   -175.62972005884566
0.016417458361775546      0.0032573218144655125    24.431313028726493       -110.61930846451487
0.017603840815810495      0.0020124695194559936    24.58445405473226        -106.13592999478213
0.0014386099653005125     0.01684066380408767      4.4841021722957635       -180.84635331744653
0                         0.01772727272727273      -0.0024220433089112703   -186.69723912188684
0.01811380575754724       0.003650788527501598     26.917742711255404       -109.8718376340312
0.01932899914946256       0.0024328788964401815    26.952394970376815       -105.38564274774052
0.0014386620207141397     0.01861341014266771      4.9354521585873          -192.42971072930789
0                         0.019500000000000003     -0.0028277107607361054   -198.87930691024863
0.0198013926052988        0.004082884360083276     29.379368522711577       -109.05058424444705
0.021044138696045652      0.0028924489379290584    29.29416430256538        -104.56564918582173
0.0014388514805757213     0.020386256033818148     5.447331645870444        -205.19575533246723
0                         0.02127272727272728      -0.0033099739503844225   -212.32414588717643
0.021478932459854116      0.004553251079809998     31.812960405253857       -108.15599933105227
0.0227483715565337        0.003390941625524529     31.607313749670045       -103.67644806680634
0.0014390233968555217     0.022159066354949738     6.02905641004736         -219.3027172751439
0                         0.023045454545454556     -0.003878297158432057    -227.20428941713172
0.023145186164074173      0.005061431568171417     34.21524092130349        -107.18852976703617
0.02444081560672939       0.003928098900609733     33.889373355071875       -102.71859130822025
0.0014391050460876417     0.02393181591635422      6.692030288673095        -234.93581264140812
0                         0.02481818181818183      -0.004557876060213554    -243.72136107113042
0.0247992965063286        0.005607230450594999     36.5836987522547         -106.14899169752611
0.026120594080442282      0.004503642506007391     36.13784326545528        -101.69268204345899
0.0014391216512178932     0.02570454545454548      7.450399450239199        -252.31244577366274
0                         0.026590909090909106     -0.005381499975025387    -262.11195051851445
0.0014391216512178618     0.02747727272727279      8.321394948674007        -271.6880178853849
0                         0.028363636363636383     -0.006384795636752945    -282.6548738474747
0.026440600497140795      0.006190549847107981     38.91616823887318        -105.03821041790344
0.027786838261690927      0.0051172748902826165    38.35020109182505        -100.5993782462835
0.0014391216512177497     0.02925000000000021      9.32578609464512         -293.36395909441444
0                         0.030136363636363656     -0.007612588247487413    -305.6802079642228
0.0280683570034688        0.006811128505789146     41.210159393549695       -103.85676299568111
0.02943868362437877       0.005768677802052294     40.52390030663485        -99.43939947062843
0.0014391216512172828     0.0310227272727281       10.48882147071985        -317.6978275551524
0                         0.031909090909090936     -0.00912399587150503     -331.580601621172
0.0014391216512153798     0.0327954545454579       11.841485810516096       -345.1158737773622
0                         0.03368181818181821      -0.010996214259800277    -360.8255219859954
0.029681714861047443      0.007468683263765666     43.46304513528242        -102.60543616718098
0.031075272107047407      0.006457512878898589     42.65636965480275        -98.21352734935608
0.0014391216512077692     0.034568181818195376     13.422036395013796       -376.1288911633835
0                         0.03545454545454548      -0.013330810278451585    -393.97932128917745
0.0014391216511779308     0.036340909090963124     15.278014899333433       -411.3523742569561
0                         0.03722727272727276      -0.016262566538898682    -431.724313252473
0.03127976949458838       0.008162819813239899     45.67198175380264        -101.2849911562475
0.03269575434709579       0.007183422508042887     44.745015197693895       -96.92260862760808
0.0014391216510634425     0.03811363636384745      17.468905322704433       -451.53234331800985
0                         0.039000000000000035     -0.01997195989118457     -474.8904724946672
0.0014391216506344916     0.039886363637170096     20.06967635030105        -497.57868526907123
0                         0.04077272727272731      -0.024702972968346632    -524.4939671153625
0.032861634380648735      0.008893080281621972     47.834026686909574       -99.89619171441028
0.034299291804851396      0.007946030935530472     46.78722050806283        -95.5675551242742
0.0014391216490691212     0.04165909091209671      23.175546321180793       -550.6085547104511
0                         0.042545454545454574     -0.03078881519134787     -581.7875826136338
0.00143912164352153       0.04343181819271818      26.908456156064023       -612.0033681868728
0                         0.04431818181818185      -0.038689530260247317    -648.3273137133465
0.03442643872405874       0.009659013548598746     49.94625561835261        -98.43995965962473
0.0358850544508387        0.008744943382736728     48.78034110972607        -94.14934707854452
0.0014391216244949853     0.045204545492888965     31.42595519912599        -683.4843527984617
0                         0.04609090909090912      -0.04904771620113024     -726.0611726865151
0.0014391215615969222     0.04697727285771924      36.933536944999254       -767.2136965515779
0                         0.04786363636363639      -0.06277229424267716     -817.4488731235588
0.03597328564583882       0.01046023020810445      52.00586516016631        -96.91753939025132
0.037452220792815585      0.009579745998087733     50.7217023214914         -92.66903712114267
0.00143912136202822       0.048750000428166296     43.70197033662331        -865.9314366756884
0                         0.04963636363636366      -0.08116641894321219     -925.6249464517077
0.0014391207559365752     0.050522728630005155     52.09196371036827        -983.1428598337276
0                         0.05140909090909093      -0.10612533979807874     -1054.6237550222825
0.037501286923054         0.011296387837529343     54.010192176350444       -95.33037339551224
0.03899998048176439       0.010450007235958963     52.60860146336438        -91.1277549161123
0.0014391189835907742     0.05229545875806208      62.58979385821991        -1123.3782239008267
0                         0.053181818181818205     -0.1404065482029182      -1209.6939160167337
0.0014390594871452947     0.05406819785028553      75.85643411593871        -1292.5586877674607
0                         0.05495454545454548      -0.18835318218862085     -1397.744113699094
0.03900970163743236       0.012167141328764048     55.95663934302552        -93.6797096541609
0.04052753045387877       0.011355275712852346     54.43830320880534        -89.52671624681352
0.0014389966718447071     0.05584095478062856      92.81273183757928        -1498.515154095221
0                         0.056727272727272744     -0.2565672894979798      -1627.9846329053314
0.001438962069447967      0.057613768916602255     114.75318478709642       -1751.746395203166
0                         0.05850000000000002      -0.3558542271724339      -1912.8660057213292
0.04049791690726679       0.01307214780231232      57.842610403920304       -91.9666131791248
0.04203407710614184       0.01229508114429391      56.208042925272366       -87.86722378536291
0.0014389945906808047     0.059386751070863185     143.53168656501626       -2066.5408211232048
0                         0.06027272727272729      -0.5036460034510432      -2269.4768639599715
0.0014388152497879772     0.061160101236478026     181.81252087778407       -2462.6744578236044
0                         0.062045454545454556     -0.7325190760317734      -2721.670312506127
0.04196530617187257       0.01401099196585314      59.66530428100433        -90.19214227524377
0.04351883837397187       0.013268935536482078     57.91503080259732        -86.15066863103095
0.0014389862373163425     0.06293382993824305      233.65944154532676       -2967.892969773957
0                         0.06381818181818183      -1.096306917086622       -3303.368063543409
0.0014405155660941824     0.06470792567588197      305.3953066402449        -3621.9014683287783
0                         0.0655909090909091       -1.6899073318945739      -4063.7969797046812
0.0434111774758395        0.014983178963397252     61.42170994774123        -88.35749614491628
0.04498104566182537       0.014276334606609606     59.55645368250736        -84.37852984548007
0.001443641237909731      0.06648299764983044      406.85246612579823       -4483.101747363268
0                         0.06736363636363638      -2.8913277746808794      -5076.113730165281
0.04483467328793439       0.015988136467135178     63.10868173837122        -86.46428554166307
0.04641994286416583       0.015316757386941288     61.129473327504364       -82.55238063092831
0.0014570726229018538     0.0682647357647002       557.3929491657042        -5642.084985540834
0                         0.06913636363636365      -5.423224904140322       -6451.617213540328
0.0014579499214347072     0.07006495585151869      777.1620354842453        -7256.048537029977
0                         0.07090909090909092      -8.510291827763771       -8365.223638860864
0.04623487799660774       0.01702519166116494      64.72293888059596        -84.51433836060097
0.04783478380700866       0.016389664356240178     62.63122363595969        -80.67389924902231
0.0014674174320519623     0.07180887964847715      1112.6839605422326       -9446.6796921714
0                         0.07268181818181818      -4.40810516600565        -11094.986658125114
0.0014392882731150778     0.07348746830487639      1571.856375214249        -12449.259942884906
0                         0.07445454545454545      -16.749383012230584      -15124.990075023868
0.04761097649413176       0.018093671474636017     66.26122858942868        -82.5094959829202
0.049224837341608436      0.01749450116979292      64.05881465450595        -78.74486800489699
0.001620145637537894      0.07529272788205302      2690.3768793689637       -17126.63235357458
0                         0.07622727272727273      59.17321298137055        -21240.1654662245
0.001224105694058458      0.07685021168878454      3062.6905247012987       -23672.82663072416
0                         0.078                    -34.25888980085438       -30979.95160698775
0.04896228369412318       0.019193038586686844     67.72055259791094        -80.4516298134561
0.050589382542579615      0.018630695018717454     65.40932610680319        -76.76718367594869
0.0017727272727272726     0.078                    5953.884320473124        -29518.449266375723
0.050288169026435466      0.02032282625417581      69.09802536087051        -78.34267603382006
0.051927710495604004      0.01979765569425286      66.67981257082891        -74.74286121371021
0.002727655560027123      0.076731057834597        6200.10735791221         -21273.46976919805
0.003545454545454545      0.078                    10630.639098333973       -25367.220067016522
0.05158802589973888       0.021482532744969016     70.39064964733983        -76.1846113541359
0.053239126188920315      0.020994777058235985     67.86730875133337        -72.67403588026552
0.004413763893186898      0.07660291747383931      8583.362716612477        -17607.49646670901
0.005318181818181817      0.078                    13295.735399017378       -19741.238824447857
0.05286118891964469       0.022671626157392277     71.59540462848527        -73.97964919452143
0.05452295022650722       0.022221438718824812     68.9688320399315         -70.56296520774269
0.00617195578514234       0.07655700740098344      9864.759340188966        -13621.144732074288
0.007090909090909091      0.078                    13841.051101821651       -13914.86749916691
0.05410693049040003       0.02388951997883704      72.70924245063321        -71.73025028676322
0.05577851932293754       0.023477006849030344     69.98138526613654        -68.41203451829824
0.00794864448570204       0.0765547338314712       10012.851407315988       -9798.574847132551
0.008863636363636365      0.078                    12798.287179245715       -8916.873166315576
0.05532455654047231       0.02513549241877525      73.72885493612365        -69.43894471426485
0.05700518197147418       0.024760829942615428     70.90195753980284        -66.22377170247655
0.009729340131076436      0.07656157493891162      9280.510520097347        -6544.257764807974
0.010636363636363638      0.078                    10939.480964296847       -5191.407995310352
0.05651347194672842       0.0264087481867223       74.65071882519392        -67.10828353085812
0.05820230434459728       0.026072244714614584     71.72753042497165        -64.00084272413908
0.01151520261810137       0.07656764731706925      8067.612065991006        -4051.0432935687545
0.012409090909090911      0.078                    8895.0281116265          -2687.8995173294566
0.05767313933653829       0.027708602442409653     75.47148049678707        -64.74094349148888
0.0593692660500134        0.027410571769561128     72.45507322606586        -61.74606354024177
0.013291761255451617      0.07656629302572679      6726.6979705176955       -2309.178587081998
0.014181818181818184      0.078                    7026.276042064236        -1131.2329686775456
0.05880299069809595       0.029034496215234646     76.18807820633593        -62.339827720356276
0.06050546094904823       0.028775116096193803     73.08154679892061        -59.462404863979806
0.015064142328369423      0.07656325384117488      5471.398307245877        -1161.8386614290305
0.015954545454545457      0.078                    5471.282050410317        -222.6082858218891
0.05990243001538259       0.03038585021332825      76.79746520014281        -59.90803559552555
0.06161029883237624       0.030165168780633314     73.6039116751181         -57.15299576560341
0.016838639781116157      0.07656184749240484      4389.020136951037        -439.0211491504885
0.01772727272727273       0.078                    4240.754124781909        275.0677024511054
0.06097085501990234       0.03176198949861383      77.29646622087085        -57.44886440463474
0.06268320689050481       0.031580008897866337     74.01913428337205        -54.82112652371635
0.018612867672195898      0.07656121986120334      3499.8205767939926       -4.798458575745826
0.019500000000000003      0.078                    3291.7975439539423       524.9779118461533
0.062007661742511544      0.03316213731323237      77.68180105574874        -54.965850344957715
0.06372363077812418       0.03301890529952274      74.3241911136429         -52.47025191031302
0.020386170804271058      0.07656097141193045      2788.804234944104        242.45660771834778
0.02127272727272728       0.078                    2568.2891246783415       630.9322440360135
0.0630122696497643        0.03458544568924377      77.95013198693174        -52.46275353109632
0.06473103097350115       0.03448111181213801      74.51607173796036        -50.10400664582466
0.022159054956127817      0.07656089431949974      2228.00579546679         372.4360374502697
0.023045454545454556      0.078                    2018.2666211151752       656.1170217210498
0.06398418387812756       0.03603109125496233      78.09810349223285        -49.94342686735794
0.06570488650824298       0.035965872330463326     74.59178400941354        -47.72620412721107
0.02393181818181825       0.0765608783487821       1788.2957855912157       430.6617326877249
0.02481818181818183       0.078                    1599.1970272141596       637.883602123872
0.06492298478948512       0.03749836826995155      78.1224479944534         -47.411761386588886
0.06664469309901828       0.03747241825944135      74.54835637492003        -45.34084574363023
0.025704545454545705      0.07656087834878217      1443.8681160831409       446.1092289916366
0.026590909090909106      0.078                    1278.2208795525103       597.9387713289575
0.06582821174341141       0.03898665338879196      78.02011654592035        -44.87183595480494
0.0675499627514496        0.0389999675349139       74.38284285927136        -42.95212694112209
0.027477272727273808      0.07656087834878246      1173.4822037418774       436.9078346273207
0.028363636363636383      0.078                    1030.661296485821        548.6523813350774
0.06669933024690793       0.04049528272855681      77.78819465883691        -42.32802392448661
0.06842022518044287       0.040547726554219815     74.09233095423609        -40.564439385291905
0.029250000000004734      0.07656087834878372      960.3311760498477        414.245621607879
0.030136363636363656      0.07799999999999999      838.2206936278754        496.9121520891922
0.06753580938087315       0.04202344582532531      77.4236701224864         -39.78501333106827
0.06925502900184358       0.042114892253835925     73.67395004312931        -38.18237382000391
0.03102272727274773       0.0765608783487892       791.3902983662457        384.93488539210176
0.031909090909090936      0.078                    687.3889711405309        446.4094213184987
0.0683371773345547        0.043570214141669054     76.92341239668572        -37.247775354206645
0.07005394266935469       0.043700654284975556     73.12487622649196        -35.81072344736585
0.032795454545541405      0.07656087834881241      656.6727509619626        353.05567993391054
0.03368181818181821       0.07800000000000001      568.1854069130558        398.9989745165324
0.0691030072356659        0.0451346636347098       76.28435500576576        -34.72147876961876
0.0708165523308626        0.04530419115589587      72.44233672417606        -33.45449686998771
0.034568181818542314      0.07656087834890823      548.5536425915017        320.99335102248745
0.03545454545454548       0.078                    473.2061369969988        355.4824971368741
0.06983296739348205       0.04671593491470969      75.50340226772165        -32.211391899054554
0.07154246320702133       0.04692467283724915      71.62361461598677        -31.118920198885093
0.036340909092365266      0.07656087834929319      461.2127552918685        290.0879622736993
0.03722727272727276       0.078                    396.92750368394445       316.07432142744136
0.07052679654923692       0.048313267952487256     74.5774496555777         -29.722878462964108
0.0722312995432843        0.048561260789763194     70.66605160474866        -28.80944157262009
0.03811363636933275       0.0765608783507891       390.19755787150626       261.04013762656143
0.039000000000000035      0.078                    335.20095403555104       280.67330764003356
0.07118412864823469       0.04992598137005389      73.5037349545657         -27.26149127607933
0.07288270372623963       0.050213105651167586     69.56705062515925        -26.531739164407494
0.039886363657813         0.07656087835637836      332.08865172930103       234.16372118661653
0.04077272727272731       0.078                    284.8879223311922        249.0196059401156
0.07180452942485582       0.051553368779700744     72.27968746867026        -24.833024468515248
0.07349633739280273       0.051879349360260826     68.32408165400778        -24.29172407437316
0.04165909098625415       0.0765608783763094       284.2473094572014        209.5429211766352
0.042545454545454574      0.078                    243.59596513035092       220.78457864047243
0.07238763011645957       0.05319472052354409      70.902608555079          -22.443439138017848
0.07407188229089896       0.05355912739112598      66.93468418903738        -22.09554241378593
0.04343181844465314       0.07656087844354563      244.6261405801229        187.1297677056723
0.04431818181818185       0.078                    209.48754874557847       195.6211967617311
0.07293323642325171       0.05484927556420449      69.36940536431587        -20.099006467585188
0.0746090408278527        0.05525157089494287      65.39646368347921        -19.949573576974753
0.04520454629391243       0.07656087865613202      211.627390612117         166.80425264880753
0.04609090909090912       0.078                    181.14076469570662       173.19134360127563
0.07344112706957855       0.05651598762149931      67.6772027215493         -17.806717353283215
0.0751075314775645        0.05695579140602672      63.70710064287483        -17.86045397971345
0.046977275220820895      0.07656087928215516      183.9968114895219        148.41110644842544
0.04786363636363639       0.078                    157.44731208197072       153.17961870780843
0.07391085740490534       0.05819358652761921      65.82399367055687        -15.574050278051509
0.07556709832177205       0.05867091178488664      61.864314077424204       -15.835051228761031
0.04875000691103876       0.0765608810098269       160.74396876613957       131.7819472021158
0.04963636363636366       0.078                    137.53723642843644       135.29937741126997
0.07434206228716188       0.05988097175314424      63.8077973675049         -13.408378645833603
0.07598750699110304       0.06039605779158923      59.86586134934209        -13.88049188519129
0.050522745695817405      0.07656088563251971      141.08218372610264       116.74827871899419
0.05140909090909093       0.078                    120.72310954102987       119.29388041337965
0.07473486561931174       0.06157752184940004      61.62534593487877        -11.316932545300887
0.07636854035519823       0.06213034203215276      57.70955095152919        -12.004192862772245
0.05229550446271366       0.07656089818870862      124.38299796326079       103.14881274652824
0.053181818181818205      0.078                    106.45819371565462       104.93575280688316
0.0750896762053186        0.06328323051681477      59.27212746772693        -9.306873125589286
0.0767099999030433        0.06387286600633033      55.39320429627177        -10.213841237902356
0.0540683162811311        0.0765609306493961       110.14155944862402       90.83319382696983
0.05495454545454548       0.078                    94.30508393279185        92.02513376558996
0.07540888036899902       0.0649971297248755       56.74043458491383        -7.389777779304129
0.07701170687813903       0.06562272228171345      52.9147447114529         -8.517460089252955
0.05584124252348871       0.07656100145402024      97.95023984916998        79.66364691250602
0.056727272727272744      0.078                    83.91194989586711        80.38670861402127
0.07568875691153044       0.06672203846713182      54.030510839405956       -5.566280984866169
0.07727350315856926       0.06737899677042772      50.271770602264134       -6.923348257217597
0.05761433121718537       0.07656110479907331      87.47878532843458        69.51554445665323
0.05850000000000002       0.078                    74.99436306489403        69.86698236651523
0.07593498345803489       0.06845268262228398      51.13378854600834        -3.859618128666149
0.07749525187397446       0.06914077108382127      47.46210243292537        -5.440005241799185
0.05938759292569853       0.07656119144211278      78.45864891838555        60.27713254216639
0.06027272727272729       0.078                    67.32141873122374        60.331870402936126
0.07614264785769163       0.07018057319968306      48.07015914909093        -2.281694094268596
0.07767683775348254       0.07090712493983231      44.4832542540459         -4.076374454839024
0.0611610798112977        0.07656123672874632      70.6699720218971         51.84864245019801
0.062045454545454556      0.078                    60.7050408391811         51.66430318801505
0.07630048764032216       0.07189240978578662      44.88062250367571        -0.8315650863332044
0.07781816720076594       0.07267713859717954      41.33384906864914        -2.8419026685571622
0.06293481553218087       0.0765613189821485       63.93224889106884        44.141905204388195
0.06381818181818183       0.078                    54.99174727613188        43.7621301106642
0.07646346345043499       0.07362106698858394      41.42566900850653        0.4135815035432368
0.07791916809456556       0.07444989529015886      38.01418232319046        -1.745430236413723
0.06470890995268268       0.07656156406697427      58.09692684032106        37.07870294509501
0.0655909090909091        0.078                    50.056268268280384       36.53636289930173
0.06648186437902205       0.0765628613760365       53.044053973796586       30.597370289333096
0.06736363636363638       0.078                    45.79662599131972        29.90965138496756
0.07667169882688024       0.07529809056029381      37.81699327447587        1.2813045201951565
0.07797978931522606       0.07622448363765526      34.53526720197792        -0.796555665038149
0.06824404520277627       0.07656057141059347      48.70961892126328        24.660743087589925
0.06913636363636365       0.078                    42.13057296914038        23.815823721076438
0.07000331096651441       0.07657540573794092      44.92188990603836        19.21672311966761
0.07090909090909092       0.078                    38.99341159678948        18.19817999085353
0.07173536430135262       0.07660020703092317      41.6879588709335         14.269369858325064
0.07268181818181818       0.078                    36.33545721823109        13.01059715410208
0.07343372909842107       0.0765986180748419       39.04045187970846        9.75185120504173
0.07445454545454545       0.078                    34.12585590449357        8.222531048967756